       N       E                     dE             d eps       ncg     rms          rms(c)
DAV:   1     0.826697462774E+02    0.82670E+02   -0.82168E+03   582   0.844E+02
DAV:   2     0.510555579594E+00   -0.82159E+02   -0.79173E+02   588   0.203E+02
DAV:   3    -0.631150527015E+01   -0.68221E+01   -0.67465E+01   720   0.601E+01
DAV:   4    -0.652026905348E+01   -0.20876E+00   -0.20865E+00   696   0.113E+01
DAV:   5    -0.652856139476E+01   -0.82923E-02   -0.82921E-02   738   0.227E+00    0.272E+00
DAV:   6    -0.594701366495E+01    0.58155E+00   -0.20475E+00   678   0.473E+00    0.113E+00
DAV:   7    -0.594926843131E+01   -0.22548E-02   -0.87619E-02   630   0.135E+00    0.726E-01
DAV:   8    -0.595086238156E+01   -0.15940E-02   -0.24701E-02   606   0.101E+00    0.237E-01
DAV:   9    -0.595047834027E+01    0.38404E-03   -0.38876E-03   708   0.225E-01    0.188E-01
DAV:  10    -0.595109365992E+01   -0.61532E-03   -0.21671E-03   630   0.148E-01    0.134E-01
DAV:  11    -0.595075932278E+01    0.33434E-03   -0.14981E-03   660   0.105E-01    0.261E-02
DAV:  12    -0.595076406712E+01   -0.47443E-05   -0.46154E-05   660   0.319E-02    0.181E-02
DAV:  13    -0.595076543152E+01   -0.13644E-05   -0.26422E-06   678   0.999E-03    0.413E-03
DAV:  14    -0.595076486620E+01    0.56532E-06   -0.34034E-06   678   0.505E-03    0.157E-03
DAV:  15    -0.595076480249E+01    0.63709E-07   -0.23090E-07   648   0.198E-03    0.647E-04
DAV:  16    -0.595076476988E+01    0.32614E-07   -0.56043E-09   456   0.395E-04    0.613E-04
DAV:  17    -0.595076475442E+01    0.15461E-07   -0.23283E-09   354   0.305E-04    0.456E-04
DAV:  18    -0.595076475316E+01    0.12556E-08   -0.79457E-10   336   0.180E-04
   1 F= -.59507648E+01 E0= -.59507648E+01  d E =-.595076E+01
       N       E                     dE             d eps       ncg     rms          rms(c)
DAV:   1    -0.318189061284E+02   -0.25868E+02   -0.35828E+02   660   0.154E+02    0.304E+01
DAV:   2    -0.102937082785E+02    0.21525E+02   -0.53277E+01   672   0.151E+02    0.102E+01
DAV:   3    -0.757687981312E+01    0.27168E+01   -0.61277E+00   684   0.255E+01    0.360E+00
DAV:   4    -0.737770039401E+01    0.19918E+00   -0.39675E-01   822   0.490E+00    0.231E+00
DAV:   5    -0.731051993990E+01    0.67180E-01   -0.57347E-02   810   0.158E+00    0.745E-01
DAV:   6    -0.730412549708E+01    0.63944E-02   -0.64194E-03   714   0.535E-01    0.236E-01
DAV:   7    -0.730410619117E+01    0.19306E-04   -0.16998E-03   618   0.469E-01    0.607E-02
DAV:   8    -0.730397967298E+01    0.12652E-03   -0.39143E-04   672   0.228E-01    0.375E-02
DAV:   9    -0.730398701117E+01   -0.73382E-05   -0.68696E-05   642   0.839E-02    0.119E-02
DAV:  10    -0.730398899990E+01   -0.19887E-05   -0.46755E-06   726   0.151E-02    0.151E-02
DAV:  11    -0.730398892616E+01    0.73741E-07   -0.78121E-06   684   0.352E-02    0.602E-03
DAV:  12    -0.730398910266E+01   -0.17651E-06   -0.12989E-07   624   0.371E-03    0.921E-04
DAV:  13    -0.730398903244E+01    0.70220E-07   -0.24100E-08   642   0.158E-03    0.528E-04
DAV:  14    -0.730398898683E+01    0.45609E-07   -0.51774E-10   336   0.170E-04    0.194E-04
DAV:  15    -0.730398898254E+01    0.42965E-08   -0.23356E-10   324   0.193E-04
   2 F= -.73039890E+01 E0= -.73039890E+01  d E =-.135322E+01
       N       E                     dE             d eps       ncg     rms          rms(c)
DAV:   1    -0.124369543113E+02   -0.51330E+01   -0.84657E+01   666   0.966E+01    0.125E+01
DAV:   2    -0.839947819475E+01    0.40375E+01   -0.69989E+00   690   0.399E+01    0.514E+00
DAV:   3    -0.760048934358E+01    0.79899E+00   -0.21356E+00   672   0.180E+01    0.102E+00
DAV:   4    -0.757690669967E+01    0.23583E-01   -0.63140E-02   594   0.193E+00    0.825E-01
DAV:   5    -0.756524900315E+01    0.11658E-01   -0.74387E-03   750   0.539E-01    0.317E-01
DAV:   6    -0.756357694128E+01    0.16721E-02   -0.15012E-03   708   0.332E-01    0.916E-02
DAV:   7    -0.756355341595E+01    0.23525E-04   -0.10964E-04   654   0.662E-02    0.114E-02
DAV:   8    -0.756355139673E+01    0.20192E-05   -0.10550E-05   636   0.205E-02    0.662E-03
DAV:   9    -0.756355149361E+01   -0.96886E-07   -0.23020E-06   624   0.109E-02    0.401E-03
DAV:  10    -0.756355192844E+01   -0.43483E-06   -0.23029E-07   654   0.321E-03    0.316E-03
DAV:  11    -0.756355221102E+01   -0.28258E-06   -0.98308E-08   630   0.337E-03    0.737E-04
DAV:  12    -0.756355222030E+01   -0.92828E-08   -0.54672E-09   408   0.486E-04
   3 F= -.75635522E+01 E0= -.75634352E+01  d E =-.161279E+01
       N       E                     dE             d eps       ncg     rms          rms(c)
DAV:   1    -0.775222160345E+01   -0.18867E+00   -0.36555E+00   666   0.240E+01    0.242E+00
DAV:   2    -0.760398847275E+01    0.14823E+00   -0.22731E-01   690   0.674E+00    0.103E+00
DAV:   3    -0.756987324774E+01    0.34115E-01   -0.96602E-02   690   0.392E+00    0.201E-01
DAV:   4    -0.756905996536E+01    0.81328E-03   -0.23859E-03   582   0.426E-01    0.189E-01
DAV:   5    -0.756852211185E+01    0.53785E-03   -0.35338E-04   636   0.151E-01    0.587E-02
DAV:   6    -0.756850301654E+01    0.19095E-04   -0.25529E-05   786   0.523E-02    0.214E-02
DAV:   7    -0.756850245994E+01    0.55659E-06   -0.31841E-06   636   0.182E-02    0.281E-03
DAV:   8    -0.756850243708E+01    0.22865E-07   -0.19859E-07   666   0.321E-03    0.115E-03
DAV:   9    -0.756850216130E+01    0.27578E-06   -0.58486E-08   660   0.168E-03    0.588E-04
DAV:  10    -0.756850221492E+01   -0.53617E-07   -0.12028E-08   594   0.916E-04    0.219E-04
DAV:  11    -0.756850220920E+01    0.57153E-08   -0.50033E-10   360   0.300E-04
   4 F= -.75685022E+01 E0= -.75680340E+01  d E =-.161774E+01
       N       E                     dE             d eps       ncg     rms          rms(c)
DAV:   1    -0.757735968762E+01   -0.88575E-02   -0.17484E-01   660   0.554E+00    0.517E-01
DAV:   2    -0.757059990830E+01    0.67598E-02   -0.10378E-02   690   0.141E+00    0.222E-01
DAV:   3    -0.756897756651E+01    0.16223E-02   -0.47164E-03   720   0.856E-01    0.469E-02
DAV:   4    -0.756893575095E+01    0.41816E-04   -0.11221E-04   594   0.936E-02    0.466E-02
DAV:   5    -0.756890058166E+01    0.35169E-04   -0.17335E-05   636   0.334E-02    0.116E-02
DAV:   6    -0.756889804755E+01    0.25341E-05   -0.17650E-06   720   0.153E-02    0.375E-03
DAV:   7    -0.756889778229E+01    0.26526E-06   -0.17349E-07   660   0.380E-03    0.700E-04
DAV:   8    -0.756889784266E+01   -0.60376E-07   -0.15419E-08   534   0.111E-03    0.233E-04
DAV:   9    -0.756889793252E+01   -0.89860E-07   -0.52892E-09   384   0.689E-04    0.229E-04
DAV:  10    -0.756889791622E+01    0.16304E-07   -0.15513E-09   348   0.465E-04    0.176E-04
DAV:  11    -0.756889792175E+01   -0.55347E-08   -0.35762E-10   342   0.251E-04
   5 F= -.75688979E+01 E0= -.75685026E+01  d E =-.161813E+01
